3
# Step: 500 Box:    0.0000    1.0000    2.0000
A       500.000000000   500.000000000   500.000000000   500.000000000   500.000000000   500.000000000
B       500.000000000   500.000000000   500.000000000   500.000000000   500.000000000   500.000000000
C       500.000000000   500.000000000   500.000000000   500.000000000   500.000000000   500.000000000
3
# Step: 499 Box:    0.0000    1.0000    2.0000
A       499.000000000   499.000000000   499.000000000   499.000000000   499.000000000   499.000000000
B       499.000000000   499.000000000   499.000000000   499.000000000   499.000000000   499.000000000
C       499.000000000   499.000000000   499.000000000   499.000000000   499.000000000   499.000000000
3
# Step: 498 Box:    0.0000    1.0000    2.0000
A       498.000000000   498.000000000   498.000000000   498.000000000   498.000000000   498.000000000
B       498.000000000   498.000000000   498.000000000   498.000000000   498.000000000   498.000000000
C       498.000000000   498.000000000   498.000000000   498.000000000   498.000000000   498.000000000
3
# Step: 497 Box:    0.0000    1.0000    2.0000
A       497.000000000   497.000000000   497.000000000   497.000000000   497.000000000   497.000000000
B       497.000000000   497.000000000   497.000000000   497.000000000   497.000000000   497.000000000
C       497.000000000   497.000000000   497.000000000   497.000000000   497.000000000   497.000000000
