2
# Step 2 box: 1.0 2.0 3.0
A   1.0  1.0  1.0  1.0  1.0  1.0
B   2.0  2.0  2.0  1.0  1.0  1.0
