2
# Step 2 box: 1.0 2.0 3.0
A   1.0  1.0  1.0  1.0  1.0  1.0
B   1.0  1.0  1.0  1.0  1.0  1.0
2
# Step 3 box: 1.0 2.0 3.0
A   4.0  4.0  4.0  4.0  4.0  4.0
B   4.0  4.0  4.0  4.0  4.0  4.0
2
# Step 4 box: 1.0 2.0 3.0
A   8.0  8.0  8.0  8.0  8.0  8.0
B   8.0  8.0  8.0  8.0  8.0  8.0
