2
# Step 4 box: 1.0 2.0 3.0
A   8.0  8.0  8.0  8.0  8.0  8.0
B   8.0  8.0  8.0  8.0  8.0  8.0
